# vtk DataFile Version 3.0
SpherePack Centers
ASCII
DATASET POLYDATA
POINTS 2 float
32.5 32.5 32.5
44.5 32.5 32.5
VERTICES 2 4
1 0
1 1
POINT_DATA 2
SCALARS radius float 1
LOOKUP_TABLE default
20.895
15.9033
