# vtk DataFile Version 3.0
SpherePack Centers
ASCII
DATASET POLYDATA
POINTS 7 float
32.5 32.5 32.5
32.5 32.5 8.5
32.5 8.5 32.5
8.5 32.5 32.5
56.5 32.5 32.5
32.5 56.5 32.5
32.5 32.5 56.5
VERTICES 7 14
1 0
1 1
1 2
1 3
1 4
1 5
1 6
POINT_DATA 7
SCALARS radius float 1
LOOKUP_TABLE default
20.895
8.93226
8.93226
8.93226
8.87
8.87
8.87
