# vtk DataFile Version 3.0
SpherePack Centers
ASCII
DATASET POLYDATA
POINTS 4 float
39.5 39.5 32.5
39.5 25.5 32.5
25.5 39.5 32.5
25.5 25.5 32.5
VERTICES 4 8
1 0
1 1
1 2
1 3
POINT_DATA 4
SCALARS radius float 1
LOOKUP_TABLE default
18.8978
18.8978
18.8978
18.8978
