# vtk DataFile Version 3.0
SpherePack Centers
ASCII
DATASET POLYDATA
POINTS 15 float
25 45.5 24.5
25 42.5 24.5
25 39.5 24.5
25 36.5 24.5
25 33.5 24.5
25 30.5 24.5
45.5 24.5 24.5
42.5 24.5 24.5
39.5 24.5 24.5
36.5 24.5 24.5
33.5 24.5 24.5
30.5 24.5 24.5
27.5 24.5 24.5
24.5 27.5 24.5
24.5 24.5 24.5
VERTICES 15 30
1 0
1 1
1 2
1 3
1 4
1 5
1 6
1 7
1 8
1 9
1 10
1 11
1 12
1 13
1 14
POINT_DATA 15
SCALARS radius float 1
LOOKUP_TABLE default
6.37
6.37
6.37
6.37
6.37
6.37
5.87
5.87
5.87
5.87
5.87
5.87
5.87
5.87
5.87
