# vtk DataFile Version 3.0
SpherePack Centers
ASCII
DATASET POLYDATA
POINTS 3 float
32.5 32.5 50.5
32.5 32.5 34.5
32.5 32.5 18.5
VERTICES 3 6
1 0
1 1
1 2
POINT_DATA 3
SCALARS radius float 1
LOOKUP_TABLE default
12.9116
7.50325
4.18663
