# vtk DataFile Version 3.0
SpherePack Centers
ASCII
DATASET POLYDATA
POINTS 7 float
45.5 31.5 31.5
41.5 31.5 31.5
37.5 31.5 31.5
33.5 31.5 31.5
29.5 31.5 31.5
25.5 31.5 31.5
21.5 31.5 31.5
VERTICES 7 14
1 0
1 1
1 2
1 3
1 4
1 5
1 6
POINT_DATA 7
SCALARS radius float 1
LOOKUP_TABLE default
10.87
10.87
10.87
10.87
10.87
10.87
10.87
