# vtk DataFile Version 3.0
SpherePack Centers
ASCII
DATASET POLYDATA
POINTS 121 float
43 20.5 43.5
43 20.5 20.5
21 42.5 20.5
21.5 21.5 21.5
43.5 43.5 43.5
43.5 22.5 20.5
43.5 20.5 22.5
40.5 20.5 20.5
24.5 20.5 20.5
20.5 43.5 22.5
20.5 42.5 43.5
20.5 40.5 20.5
20.5 24.5 20.5
20.5 20.5 24.5
23.5 43.5 20.5
20 38.5 44.5
44 19.5 28.5
27 44.5 44.5
20 34.5 19.5
20 32.5 19.5
20 30.5 19.5
20 19.5 32.5
20 19.5 30.5
38.5 19.5 44.5
44.5 44.5 37.5
44.5 37.5 44.5
44.5 26.5 44.5
44.5 19.5 35.5
37.5 44.5 44.5
34.5 19.5 19.5
32.5 19.5 19.5
30.5 19.5 19.5
19.5 44.5 35.5
19.5 44.5 28.5
39 25.5 18.5
18.5 35.5 41.5
45.5 32.5 43.5
45.5 31.5 45.5
45.5 24.5 39.5
43.5 32.5 45.5
35.5 18.5 41.5
32.5 45.5 45.5
32.5 45.5 43.5
32.5 43.5 45.5
25.5 39.5 18.5
18.5 23.5 34.5
40 46.5 32.5
40 31.5 46.5
37 46.5 38.5
37 38.5 46.5
26 36.5 46.5
25 46.5 31.5
36 17.5 34.5
36 17.5 32.5
29 30.5 17.5
28 17.5 36.5
29 17.5 34.5
29 17.5 30.5
36.5 25.5 46.5
46.5 40.5 32.5
46.5 37.5 38.5
46.5 31.5 40.5
46.5 29.5 39.5
46.5 24.5 32.5
32.5 46.5 40.5
32.5 40.5 46.5
25.5 46.5 35.5
35.5 17.5 30.5
34.5 17.5 35.5
34.5 17.5 28.5
32.5 27.5 17.5
32.5 17.5 36.5
32.5 17.5 27.5
30.5 28.5 17.5
30.5 17.5 36.5
30.5 17.5 28.5
27.5 32.5 17.5
27.5 17.5 32.5
17.5 36.5 34.5
17.5 36.5 32.5
17.5 35.5 30.5
17.5 34.5 35.5
17.5 34.5 28.5
17.5 32.5 36.5
17.5 32.5 27.5
17.5 30.5 37.5
17.5 30.5 35.5
17.5 30.5 28.5
17.5 28.5 36.5
17.5 28.5 34.5
17.5 28.5 30.5
17.5 27.5 32.5
28.5 34.5 17.5
33.5 29.5 17.5
46.5 29.5 25.5
29.5 46.5 25.5
33 31.5 47.5
47.5 33.5 32.5
47.5 33.5 30.5
47.5 31.5 33.5
47.5 31.5 31.5
33.5 47.5 32.5
33.5 47.5 30.5
33.5 33.5 47.5
31.5 47.5 33.5
31.5 47.5 31.5
31.5 32.5 47.5
47.5 34.5 28.5
34.5 47.5 28.5
47.5 47.5 31.5
15.5 15.5 38.5
31.5 23.5 42.5
34.5 34.5 20.5
25.5 24.5 39.5
23.5 26.5 39.5
43.5 35.5 26.5
35.5 43.5 26.5
27.5 29.5 43.5
40 40.5 27.5
50.5 50.5 27.5
13.5 13.5 42.5
VERTICES 121 242
1 0
1 1
1 2
1 3
1 4
1 5
1 6
1 7
1 8
1 9
1 10
1 11
1 12
1 13
1 14
1 15
1 16
1 17
1 18
1 19
1 20
1 21
1 22
1 23
1 24
1 25
1 26
1 27
1 28
1 29
1 30
1 31
1 32
1 33
1 34
1 35
1 36
1 37
1 38
1 39
1 40
1 41
1 42
1 43
1 44
1 45
1 46
1 47
1 48
1 49
1 50
1 51
1 52
1 53
1 54
1 55
1 56
1 57
1 58
1 59
1 60
1 61
1 62
1 63
1 64
1 65
1 66
1 67
1 68
1 69
1 70
1 71
1 72
1 73
1 74
1 75
1 76
1 77
1 78
1 79
1 80
1 81
1 82
1 83
1 84
1 85
1 86
1 87
1 88
1 89
1 90
1 91
1 92
1 93
1 94
1 95
1 96
1 97
1 98
1 99
1 100
1 101
1 102
1 103
1 104
1 105
1 106
1 107
1 108
1 109
1 110
1 111
1 112
1 113
1 114
1 115
1 116
1 117
1 118
1 119
1 120
POINT_DATA 121
SCALARS radius float 1
LOOKUP_TABLE default
10.37
10.37
10.37
10.1436
9.87
9.87
9.87
9.87
9.87
9.87
9.87
9.87
9.87
9.87
9.414
9.37
9.37
9.37
9.37
9.37
9.37
9.37
9.37
8.87
8.87
8.87
8.87
8.87
8.87
8.87
8.87
8.87
8.87
8.87
8.37
7.87
7.87
7.87
7.87
7.87
7.87
7.87
7.87
7.87
7.87
7.87
7.37
7.37
7.37
7.37
7.37
7.37
7.37
7.37
7.37
7.37
7.37
7.37
6.87
6.87
6.87
6.87
6.87
6.87
6.87
6.87
6.87
6.87
6.87
6.87
6.87
6.87
6.87
6.87
6.87
6.87
6.87
6.87
6.87
6.87
6.87
6.87
6.87
6.87
6.87
6.87
6.87
6.87
6.87
6.87
6.87
6.87
6.78608
6.61456
6.61456
6.61456
6.37
5.87
5.87
5.87
5.87
5.87
5.87
5.87
5.87
5.87
5.87
5.76898
5.76898
5.76898
4.87
4.47555
3.87
3.87
3.87
3.69843
3.69843
3.69843
3.60607
2.87
2.87
