# vtk DataFile Version 3.0
SpherePack Centers
ASCII
DATASET POLYDATA
POINTS 20 float
39 51.5 32.5
39 13.5 32.5
26 51.5 32.5
26 13.5 32.5
52.5 32.5 32.5
48.5 44.5 32.5
48.5 20.5 32.5
44.5 48.5 32.5
44.5 16.5 32.5
32.5 52.5 32.5
32.5 12.5 32.5
20.5 48.5 32.5
20.5 16.5 32.5
16.5 44.5 32.5
16.5 20.5 32.5
12.5 32.5 32.5
51.5 38.5 32.5
51.5 26.5 32.5
13.5 38.5 32.5
13.5 26.5 32.5
VERTICES 20 40
1 0
1 1
1 2
1 3
1 4
1 5
1 6
1 7
1 8
1 9
1 10
1 11
1 12
1 13
1 14
1 15
1 16
1 17
1 18
1 19
POINT_DATA 20
SCALARS radius float 1
LOOKUP_TABLE default
7.37
7.37
7.37
7.37
6.95276
6.95276
6.95276
6.95276
6.95276
6.95276
6.95276
6.95276
6.95276
6.95276
6.95276
6.95276
6.87
6.87
6.87
6.87
